8
Atoms. Timestep: 0
Mg 0 0 0
Mg 2.1085 2.1085 0
Mg 2.1085 0 2.1085
Mg 0 2.1085 2.1085
O1 2.1085 0 0
O1 0 2.1085 0
O1 0 0 2.1085
O1 2.1085 2.1085 2.1085
